<?xml version="1.0"?>
<VTKFile type="UnstructuredGrid" version="0.1" byte_order="LittleEndian">
  <UnstructuredGrid>
    <Piece NumberOfCells="644" NumberOfPoints="324">
      <PointData Scalars="Dirichlet_data">
        <DataArray type="Float32" Name="Dirichlet_data" NumberOfComponents="1" format="ascii">
          -0.800018 -0.920174 -0.993661 -0.798984 -0.634566 -0.419639 -0.577788 0.692456 1.01101 0.812237 0.78208 1.01182
          -0.471147 -0.207057 -0.388716 -0.687226 -0.796998 -0.633223 -0.0371064 0.0399652 0.36294 -0.291798 0.161177 0.459299
          -0.442707 -0.919264 -0.683756 -0.314767 0.101553 0.68166 0.439185 0.472737 -0.464348 -0.215405 -0.225857 0.44246
          0.0341614 0.451948 0.271926 0.819713 0.447624 0.190329 0.00034077 -0.22638 0.0240053 -0.00014496 -0.200652 -0.441868
          0.000652509 -0.914724 -0.986228 -1.02261 -0.00080364 -0.401449 -0.225066 -0.659921 -0.44573 -0.491081 -0.450438 -1.011
          -1.11554 -0.819112 -1.12936 -1.0583 -1.27243 -0.787219 -0.634866 -0.441896 -0.854574 -1.05249 -1.00893 -0.809739
          -1.20868 -1.27507 -1.24683 -1.21548 -1.1882 -0.90219 -1.07036 -1.18858 -1.04067 -0.990537 -1.07221 -0.979096
          -0.700832 -1.00525 -1.07285 -1.14974 -1.0636 -0.868715 -1.07625 -0.796983 -0.917025 0.912788 0.807653 1.00637
          0.649458 0.794571 0.506138 0.772141 -0.159265 -0.456211 -0.0643744 0.168113 -0.325174 -0.746084 0.634691 0.439982
          -0.154019 0.225055 -0.468274 -0.798049 -0.782263 0.467638 0.16611 0.2636 -0.00797671 0.79507 0.471956 0.634957
          0.132783 0.454998 0.669877 0.143003 0.914417 0.994944 -0.195588 0.931017 1.02034 0.240897 0.439768 -0.523318
          0.0121538 -0.177482 -0.493808 -0.274115 0.225719 0.701687 0.441139 0.226838 1.17116 1.09853 1.08359 1.14106
          0.738281 0.90024 1.05679 0.872765 0.5759 0.635145 1.23591 1.24985 1.07413 1.01935 1.17999 0.751086
          1.13545 1.11439 1.10887 1.13772 1.27623 0.848843 1.19453 1.05462 1.11527 0.920844 0.985151 1.22776
          1.20027 1.25453 0.984771 0.914183 0.79461 0.498359 0.381365 1.04721 1.00516 -0.450796 -0.81103 -0.872942
          -0.54693 -0.811758 -1.07843 -1.00572 -0.795016 -0.986018 -0.974272 -1.15527 -1.1275 -0.916942 -1.11225 -1.19768
          -1.01317 -1.17912 -0.636666 -0.832148 -0.890293 -1.02944 -0.227296 -0.444266 -0.759448 -1.03289 -1.09924 -1.06305
          -1.21914 -0.994744 -1.06715 -1.24418 -1.24065 -0.449718 -0.512512 -0.000405098 -1.24164 -1.10973 -0.836227 -0.551628
          -1.27088 -1.25037 -1.02809 -1.06704 -0.774888 -0.869933 -1.04804 0.0337951 0.822558 0.442924 0.445853 -0.43294
          -0.0240983 -0.303977 0.153236 0.0959816 -0.167825 0.0441496 -0.372246 -0.225533 0.0469101 -0.558024 -0.637878 0.807124
          0.779267 1.00503 -0.618219 -0.816992 0.173852 0.446459 -0.80517 0.519693 0.840794 1.01794 0.352997 0.250268
          -0.956631 0.683605 0.534044 -0.175146 0.336385 1.15907 0.927824 1.16893 1.28845 1.25146 1.24329 1.21387
          0.554852 0.226335 1.03737 1.17129 0.890373 1.21092 1.03014 0.992924 0.631344 0.442675 0.800189 0.990177
          0.639035 1.206 1.02938 1.13953 0.708993 0.760102 1.05526 1.1702 1.06095 1.0173 0.78896 1.08769
          1.08109 0.920872 0.98823 0.409278 1.03569 0.955919 0.840311 0.617858 0.377731 0.575958 0.249334 0.845782
          0.661878 0.277939 0.0626168 -0.163835 0.105351 -0.287603 0.426012 0.0837544 -0.147574 -0.286973 -0.0285406 -0.357824
          -0.65621 0.269587 0.427208 0.0695171 -0.603617 -0.432118 -0.166904 -0.766397 -0.0589159 -0.855076 -0.535428 -0.171056
        </DataArray>
      </PointData>
      <Points>
        <DataArray type="Float32" Name="Coordinates" NumberOfComponents="3" format="ascii">
          0.331795 0.921499 0.201868 0.433884 0.900969 0 0.222521 0.974928 0 0 0.781832 0.62349
          0 0.62349 0.781832 0.170735 0.664681 0.727357 0.189818 0.789463 0.58371 0.828012 0.202949 0.522692
          0.781832 0 0.62349 0.900969 0 0.433884 0.691342 0.20737 0.69213 0.62349 0 0.781832
          0.599082 0.76251 0.244292 0.609006 0.690515 0.390259 0.727423 0.659629 0.189062 0.498947 0.850332 0.167296
          0.62349 0.781832 0 0.781832 0.62349 0 0.298688 0.520184 0.800121 0.20915 0.351357 0.912581
          0.42827 0.363263 0.827421 0.14089 0.527091 0.838048 0.451727 0.509723 0.732205 0.588404 0.390514 0.708011
          0 0.433884 0.900969 0 0.900969 0.433884 0.252154 0.878501 0.405775 0.413153 0.747199 0.520575
          0.565861 0.580111 0.585894 0.539334 0.222391 0.812195 0.917806 0.204352 0.3404 0.352612 0.19136 0.915995
          0.477287 0.802122 0.358884 0.336264 0.666988 0.664871 0 0.222521 0.974928 0.721233 0.398711 0.566438
          0.740943 0.550516 0.384624 0.974928 0 0.222521 0.837817 0.387199 0.38489 0.433884 0 0.900969
          0.222521 0 0.974928 0.177142 0.161505 0.970843 0 0 1 0.974928 0.222521 0
          0.964273 0.230981 0.129714 1 0 0 0.837707 0.5136 0.18564 0.900969 0.433884 0
          0.908187 0.367463 0.20042 0.129776 0.960052 0.247907 0 0.974928 0.222521 0 1 0
          -1 0 0 -0.982765 0.121941 0.138938 -0.974928 0.222521 0 -0.939206 0.28671 0.188916
          -0.974928 0 0.222521 -0.165001 0.158093 0.973541 -0.222521 0 0.974928 -0.781832 0 0.62349
          -0.820021 0.196181 0.537661 -0.900969 0 0.433884 -0.772362 0.497223 0.395254 -0.847443 0.349673 0.399461
          -0.712565 0.400486 0.576075 -0.932433 0.155667 0.326093 -0.781832 0.62349 0 -0.900969 0.433884 0
          -0.853725 0.477288 0.208206 -0.528777 0.149103 0.835562 -0.62349 0 0.781832 -0.433884 0 0.900969
          -0.545979 0.315323 0.776195 -0.526159 0.536935 0.659437 -0.63203 0.631877 0.448631 -0.42114 0.715056 0.557976
          -0.683918 0.182979 0.70624 -0.370115 0.199271 0.907362 -0.210589 0.824345 0.525459 -0.42656 0.810485 0.401449
          -0.171081 0.970304 0.171002 -0.222521 0.974928 0 -0.186709 0.916711 0.353243 -0.736694 0.642515 0.210846
          -0.189273 0.332223 0.924015 -0.202477 0.703309 0.681439 -0.370952 0.42503 0.825678 -0.363566 0.620691 0.694668
          -0.575039 0.789593 0.21418 -0.184097 0.543626 0.818889 -0.372338 0.90735 0.195142 -0.62349 0.781832 0
          -0.433884 0.900969 0 0 -0.900969 0.433884 -0.196721 -0.925195 0.324523 0 -0.974928 0.222521
          -0.18905 -0.835213 0.516411 0 -0.781832 0.62349 -0.382774 -0.822954 0.419799 -0.377079 -0.90485 0.19763
          -0.405359 -0.47881 0.778733 -0.547065 -0.383251 0.744203 -0.478866 -0.576846 0.661768 -0.211871 -0.520662 0.827056
          -0.378994 -0.342867 0.859538 -0.539135 -0.171226 0.82463 0 -0.62349 0.781832 0 -0.433884 0.900969
          -0.150582 -0.145608 0.977816 0 -0.222521 0.974928 -0.333132 -0.167988 0.927795 -0.677889 -0.191764 0.709714
          -0.800417 -0.163533 0.576706 -0.176013 -0.705965 0.686026 -0.530811 -0.691361 0.490162 -0.380935 -0.713982 0.587468
          -0.184109 -0.337811 0.923032 -0.62349 -0.781832 0 -0.680218 -0.711203 0.177465 -0.781832 -0.62349 0
          -0.327768 -0.610363 0.721127 -0.546586 -0.781597 0.300584 -0.557485 -0.818495 0.138843 -0.670633 -0.643608 0.368808
          -0.433884 -0.900969 0 -0.222521 -0.974928 0 -0.624393 -0.533431 0.5706 -0.176596 -0.972304 0.153095
          0 -1 0 -0.798468 -0.56709 0.202131 -0.900969 -0.433884 0 -0.722529 -0.357629 0.591653
          -0.892294 -0.398867 0.211461 -0.773179 -0.479981 0.414503 -0.861623 -0.271919 0.428561 -0.954919 -0.186109 0.231286
          -0.974928 -0.222521 0 0.932887 -0.293838 0.208282 0.900969 -0.433884 0 0.974928 -0.222521 0
          0.38652 -0.822561 0.417129 0.286522 -0.927152 0.241443 0.45624 -0.860337 0.227301 0.602804 -0.167128 0.78019
          0.297336 -0.161716 0.940978 0.298512 -0.350335 0.887782 0.46118 -0.238007 0.85479 0.849096 -0.482782 0.214379
          0.14578 -0.288737 0.946245 0.781832 -0.62349 0 0.578087 -0.358536 0.732985 0.716707 -0.312135 0.623621
          0.845919 -0.331101 0.418082 0.711741 -0.664469 0.227828 0.75695 -0.490082 0.432256 0.141728 -0.493774 0.857963
          0.422352 -0.442361 0.791161 0.71348 -0.115139 0.69115 0.807876 -0.161231 0.566869 0.544742 -0.778445 0.311896
          0.635682 -0.52107 0.569557 0.918027 -0.155623 0.364704 0.400221 -0.725336 0.560098 0.207542 -0.789793 0.577194
          0.32738 -0.639081 0.695987 0.433884 -0.900969 0 0.567913 -0.809895 0.146781 0.524918 -0.704493 0.477651
          0.638046 -0.645249 0.420179 0.507304 -0.545257 0.667336 0.273862 -0.531172 0.801783 0.15573 -0.675411 0.720811
          0.62349 -0.781832 0 0.973998 -0.137313 0.180206 0.125952 -0.127557 0.983801 0.165559 -0.895746 0.412589
          0.222521 -0.974928 0 0.974928 0 -0.222521 0.900969 0 -0.433884 0.913143 0.181511 -0.364998
          0.964857 0.197874 -0.172905 0.433884 0 -0.900969 0.521599 0.175477 -0.83495 0.62349 0 -0.781832
          0 0.781832 -0.62349 0.125804 0.843753 -0.521779 0.166346 0.736582 -0.655573 0.316136 0.807796 -0.497517
          0.331244 0.655864 -0.678321 0 0.900969 -0.433884 0.382458 0.888499 -0.253564 0.523221 0.75761 -0.390214
          0.781832 0 -0.62349 0.68611 0.173707 -0.706455 0 0.62349 -0.781832 0.344269 0.177744 -0.921893
          0.176363 0.588074 -0.789344 0.557053 0.810741 -0.179975 0 0.222521 -0.974928 0 0.433884 -0.900969
          0.210573 0.351169 -0.912326 0.322855 0.492652 -0.808121 0.821652 0.179478 -0.540995 0.407613 0.344469 -0.845691
          0.470918 0.519183 -0.713222 0 0.974928 -0.222521 0.181876 0.921353 -0.343555 0.721588 0.350814 -0.596858
          0.586396 0.352657 -0.729227 0.222521 0 -0.974928 0.175761 0.159304 -0.971458 0 0 -1
          0.478093 0.673442 -0.563828 0.826957 0.353322 -0.437386 0.894692 0.368772 -0.252057 0.931039 0.349255 -0.105769
          0.606636 0.49461 -0.622377 0.672001 0.566036 -0.477512 0.796765 0.522507 -0.303567 0.692602 0.669769 -0.26779
          0.84148 0.521427 -0.141509 0.715619 0.688225 -0.119316 0.236582 0.962308 -0.134133 -0.193301 0.331412 -0.923472
          -0.433884 0 -0.900969 -0.333015 0.19015 -0.92355 -0.222521 0 -0.974928 -0.209718 0.712352 -0.669756
          -0.394629 0.590079 -0.704326 -0.41884 0.744753 -0.519535 -0.1425 0.132849 -0.980839 -0.570654 0.580742 -0.580597
          -0.214766 0.525738 -0.823089 -0.916811 0.342048 -0.206058 -0.704706 0.675273 -0.217704 -0.618531 0.691432 -0.373283
          -0.714261 0.562095 -0.41699 -0.426978 0.840095 -0.334561 -0.217692 0.844323 -0.489621 -0.900969 0 -0.433884
          -0.812188 0.163932 -0.55989 -0.781832 0 -0.62349 -0.552538 0.812656 -0.185178 -0.198094 0.928994 -0.312616
          -0.973817 0.155467 -0.165862 -0.974928 0 -0.222521 -0.373631 0.913033 -0.163616 -0.926072 0.146891 -0.347582
          -0.693776 0.156761 -0.702923 -0.62349 0 -0.781832 -0.825317 0.373048 -0.423895 -0.380161 0.398803 -0.834526
          -0.143979 0.980829 -0.131318 -0.53232 0.220573 -0.817302 -0.679311 0.366608 -0.635717 -0.820851 0.529636 -0.213752
          -0.515509 0.437359 -0.736863 -0.541423 -0.233002 -0.807819 -0.338608 -0.286972 -0.896098 -0.435535 -0.46435 -0.77116
          -0.608999 -0.433302 -0.664357 -0.472491 -0.624911 -0.621481 -0.670408 -0.583889 -0.457851 -0.514713 -0.723538 -0.45996
          -0.202621 -0.142641 -0.968813 0 -0.222521 -0.974928 -0.258772 -0.626628 -0.735102 -0.358177 -0.747108 -0.559946
          -0.228122 -0.481783 -0.846077 -0.736004 -0.213955 -0.642279 -0.826146 -0.45855 -0.327435 -0.726963 -0.651679 -0.216423
          -0.154708 -0.334604 -0.929573 0 -0.433884 -0.900969 0 -0.781832 -0.62349 -0.178901 -0.736228 -0.652659
          0 -0.62349 -0.781832 -0.760423 -0.398438 -0.512839 -0.557784 -0.810643 -0.178142 -0.606937 -0.722699 -0.330658
          -0.932276 -0.295457 -0.208725 -0.86043 -0.486305 -0.152209 -0.372445 -0.913497 -0.16373 -0.423333 -0.829074 -0.365274
          -0.8545 -0.25457 -0.452797 -0.843786 -0.119169 -0.523281 -0.93012 -0.129346 -0.343724 -0.224548 -0.837699 -0.497834
          -0.20765 -0.922712 -0.324782 0 -0.900969 -0.433884 0 -0.974928 -0.222521 -0.982198 -0.124055 -0.141062
          -0.155325 -0.974397 -0.162559 0.121941 -0.982765 -0.138938 0.28671 -0.939206 -0.188916 0.196163 -0.820004 -0.537692
          0.496783 -0.773032 -0.394497 0.349653 -0.847432 -0.399503 0.399173 -0.714291 -0.574847 0.155663 -0.932431 -0.326101
          0.47724 -0.853772 -0.208125 0.148849 -0.528372 -0.835863 0.326507 -0.565662 -0.757245 0.536638 -0.546062 -0.643301
          0.600825 -0.658656 -0.452971 0.72434 -0.468051 -0.506221 0.18263 -0.683808 -0.706437 0.915743 -0.370651 -0.155026
          0.854555 -0.409719 -0.319163 0.917152 -0.266205 -0.296593 0.245657 -0.409561 -0.878586 0.445978 -0.386597 -0.807246
          0.825402 -0.232765 -0.514327 0.815785 -0.552141 -0.17215 0.654275 -0.721864 -0.225467 0.740884 -0.578822 -0.340668
          0.649474 -0.324136 -0.687837 0.331706 -0.201152 -0.921688 0.153419 -0.137739 -0.978514 0.549156 -0.164629 -0.819344
          0.171016 -0.268388 -0.948009 0.70122 -0.147179 -0.697587 0.925044 -0.133951 -0.355458 0.970829 -0.168321 -0.170762
        </DataArray>
      </Points>
      <Cells>
        <DataArray type="Int32" Name="connectivity" NumberOfComponents="1" format="ascii">
          0 1 2 3 4 5 6 3 5 7 8 9
          10 11 8 7 10 8 12 13 14 1 15 16
          15 12 16 16 14 17 12 14 16 0 15 1
          18 19 20 4 21 5 20 22 18 20 23 22
          18 21 19 18 5 21 19 21 24 21 4 24
          25 6 26 6 25 3 27 28 13 6 27 26
          29 10 23 20 29 23 9 30 7 31 20 19
          12 32 13 32 27 13 33 27 6 5 33 6
          19 24 34 23 28 22 23 35 28 13 36 14
          37 30 9 35 10 7 10 35 23 0 26 32
          15 0 32 12 15 32 26 27 32 35 38 36
          38 35 7 29 11 10 29 39 11 31 29 20
          29 31 39 18 33 5 22 33 18 28 33 22
          27 33 28 40 39 31 41 40 31 19 41 31
          40 41 42 34 41 19 41 34 42 43 44 45
          44 37 45 17 46 47 46 17 14 30 38 7
          47 44 43 44 30 37 46 14 36 46 36 38
          36 28 35 28 36 13 48 44 47 46 48 47
          30 48 38 48 30 44 48 46 38 49 50 25
          26 49 25 50 49 51 0 49 26 2 49 0
          49 2 51 52 53 54 53 55 54 53 52 56
          42 57 58 57 42 34 59 60 61 62 63 64
          63 60 64 61 65 56 65 53 56 55 53 65
          60 65 61 66 67 68 69 70 71 64 72 73
          73 74 64 74 73 75 76 60 59 55 63 68
          55 65 63 63 62 68 65 60 63 67 55 68
          55 67 54 69 77 72 57 77 58 71 58 77
          69 71 77 60 76 64 76 72 64 72 76 69
          75 78 79 59 70 76 70 69 76 80 51 81
          51 80 50 82 25 50 25 82 78 64 74 62
          83 62 74 68 83 66 83 68 62 77 57 84
          75 85 78 77 86 72 86 77 84 87 75 73
          75 87 85 74 88 83 86 73 72 89 84 24
          86 84 89 4 89 24 34 84 57 84 34 24
          89 85 87 87 73 86 89 87 86 4 3 85
          89 4 85 80 82 50 90 88 79 79 74 75
          88 74 79 90 82 80 78 3 25 3 78 85
          91 83 88 83 91 66 81 90 80 90 81 92
          82 79 78 90 79 82 88 92 91 88 90 92
          93 94 95 96 93 97 93 96 94 98 99 94
          96 98 94 100 101 102 103 104 100 100 104 101
          105 101 104 105 71 70 106 107 103 58 108 42
          108 109 42 104 110 105 110 71 105 111 70 59
          70 111 105 112 111 59 111 101 105 97 113 96
          114 115 102 115 114 98 116 103 107 103 116 104
          117 118 119 58 71 110 110 108 58 106 113 97
          113 106 103 103 120 113 100 102 120 103 100 120
          121 98 114 98 121 99 115 98 96 113 115 96
          120 102 115 120 115 113 109 116 107 109 108 116
          116 108 110 110 104 116 122 121 118 117 122 118
          123 121 114 121 123 118 122 117 124 99 122 124
          121 122 99 124 125 99 126 114 102 125 127 99
          127 94 99 126 102 101 127 125 128 127 95 94
          95 127 128 119 129 130 129 119 118 111 131 101
          131 126 101 114 126 123 123 129 118 112 131 111
          129 132 130 133 123 126 123 133 129 132 129 133
          126 131 133 133 134 132 112 134 131 134 133 131
          61 134 112 112 59 61 132 134 135 135 61 56
          61 135 134 52 135 56 135 52 136 132 136 130
          132 135 136 137 138 139 140 141 142 143 11 39
          144 39 40 145 146 144 137 147 138 148 109 107
          147 149 138 143 146 150 151 143 150 137 152 147
          153 147 154 152 154 147 144 148 145 143 39 146
          39 144 146 155 107 106 156 150 146 145 156 146
          11 157 8 157 158 8 157 11 143 142 159 140
          152 151 154 160 154 151 150 160 151 158 151 152
          137 161 152 161 158 152 162 163 140 162 164 163
          165 166 142 166 159 142 167 162 140 159 167 140
          159 168 167 168 160 167 169 160 150 156 169 150
          156 170 164 163 171 97 151 157 143 151 158 157
          171 106 97 107 155 148 155 145 148 153 149 147
          164 171 163 172 166 165 166 153 159 37 9 161
          168 153 154 153 168 159 160 168 154 160 169 167
          164 169 156 162 169 164 169 162 167 145 170 156
          170 145 155 9 8 158 161 9 158 173 37 161
          137 173 161 171 155 106 170 155 171 170 171 164
          173 139 45 139 173 137 37 173 45 172 149 153
          166 172 153 174 40 42 174 109 148 109 174 42
          174 144 40 148 144 174 175 141 140 163 175 140
          163 93 175 93 163 97 175 95 141 95 175 93
          142 141 165 141 176 165 95 176 141 176 95 128
          177 178 179 180 45 177 179 180 177 45 180 43
          181 182 183 184 185 186 187 188 186 185 184 189
          187 190 191 192 183 193 183 182 193 194 184 186
          195 182 181 186 196 194 16 197 1 198 199 200
          188 196 186 196 188 201 190 197 191 202 192 193
          203 195 200 201 203 200 196 199 194 199 196 200
          200 196 201 188 204 201 190 1 197 202 178 192
          178 202 179 204 203 201 182 195 203 205 206 189
          207 193 208 186 185 187 182 208 193 208 182 203
          204 208 203 207 202 193 190 187 206 206 185 189
          187 185 206 181 209 195 209 210 195 210 200 195
          210 209 211 210 198 200 198 210 211 187 212 188
          212 187 191 213 179 202 179 213 214 179 214 180
          43 215 47 214 215 180 215 43 180 208 216 207
          216 217 207 207 213 202 204 188 212 217 212 191
          217 213 207 217 218 213 214 213 218 204 216 208
          216 204 212 217 216 212 217 219 218 219 217 191
          47 220 17 218 220 214 215 220 47 215 214 220
          197 219 191 221 17 220 220 218 219 219 221 220
          16 221 197 221 16 17 221 219 197 222 2 1
          190 222 1 2 222 51 206 222 190 205 222 206
          222 205 51 198 223 199 224 225 226 227 184 194
          228 229 227 226 230 211 230 198 211 229 228 231
          223 232 199 54 67 233 194 199 232 227 194 232
          230 226 225 230 223 198 223 230 225 234 235 236
          235 231 236 237 238 229 227 232 228 239 240 241
          235 234 242 237 235 242 231 235 229 235 237 229
          189 243 205 54 244 52 244 245 52 233 244 54
          242 246 237 247 239 245 244 247 245 248 249 241
          240 248 241 238 237 243 91 92 242 246 242 92
          240 239 247 244 233 247 233 250 247 250 240 247
          232 251 228 252 81 51 205 252 51 253 248 254
          223 251 232 229 238 227 243 189 238 81 246 92
          246 243 237 236 255 234 243 252 205 246 252 243
          252 246 81 253 224 249 248 253 249 224 253 225
          251 225 253 251 223 225 67 255 233 256 251 253
          254 256 253 184 238 189 238 184 227 255 66 234
          255 67 66 228 256 231 251 256 228 256 254 231
          234 91 242 91 234 66 240 254 248 254 240 250
          250 255 236 255 250 233 254 236 231 236 254 250
          257 258 259 259 260 257 261 260 259 261 262 260
          262 261 263 264 226 211 265 264 211 266 261 259
          267 261 266 258 268 259 268 266 259 269 257 260
          270 262 271 261 267 263 272 265 273 265 272 264
          264 272 258 274 275 276 275 266 276 277 262 270
          268 273 276 266 268 276 272 273 268 258 272 268
          117 271 278 271 117 119 278 124 117 266 275 267
          224 257 249 277 260 262 260 277 269 271 279 278
          263 279 262 279 271 262 280 270 281 124 278 282
          278 283 282 119 281 271 281 119 130 281 270 271
          284 277 270 270 280 284 277 284 269 267 283 263
          283 279 263 278 279 283 241 285 239 284 285 269
          285 241 269 239 286 245 280 286 284 287 283 267
          288 289 290 285 286 239 285 284 286 289 287 274
          289 288 287 287 275 274 275 287 267 282 283 288
          283 287 288 130 280 281 280 130 136 124 282 125
          269 249 257 249 269 241 291 136 52 245 291 52
          125 292 128 292 290 128 264 224 226 291 245 286
          291 280 136 280 291 286 292 125 282 292 288 290
          288 292 282 224 258 257 258 224 264 128 293 176
          293 294 176 293 128 290 274 295 289 296 297 298
          297 295 298 289 299 290 299 293 290 294 293 299
          295 299 289 172 165 300 301 276 273 298 302 303
          303 304 298 304 303 305 306 295 274 294 297 300
          294 299 297 297 296 300 299 295 297 165 294 300
          294 165 176 307 308 309 301 310 302 311 302 310
          301 273 310 295 306 298 306 302 298 302 306 301
          308 312 309 305 312 308 311 303 302 274 276 306
          276 301 306 313 307 138 298 304 296 314 296 304
          307 139 138 307 313 308 138 149 313 300 314 172
          314 300 296 315 305 308 305 315 304 313 315 308
          303 316 305 316 303 311 310 317 311 315 313 314
          304 315 314 149 314 313 314 149 172 209 318 211
          318 265 211 183 319 181 319 317 181 317 320 318
          320 265 318 265 320 273 310 320 317 320 310 273
          192 321 183 209 317 318 317 209 181 316 312 305
          312 316 321 319 321 316 321 319 183 311 319 316
          311 317 319 322 178 177 322 309 312 139 323 45
          323 177 45 323 139 307 309 323 307 323 322 177
          309 322 323 178 322 312 192 312 321 312 192 178
        </DataArray>
        <DataArray type="Int32" Name="offsets" NumberOfComponents="1" format="ascii">
          3 6 9 12 15 18 21 24 27 30 33 36
          39 42 45 48 51 54 57 60 63 66 69 72
          75 78 81 84 87 90 93 96 99 102 105 108
          111 114 117 120 123 126 129 132 135 138 141 144
          147 150 153 156 159 162 165 168 171 174 177 180
          183 186 189 192 195 198 201 204 207 210 213 216
          219 222 225 228 231 234 237 240 243 246 249 252
          255 258 261 264 267 270 273 276 279 282 285 288
          291 294 297 300 303 306 309 312 315 318 321 324
          327 330 333 336 339 342 345 348 351 354 357 360
          363 366 369 372 375 378 381 384 387 390 393 396
          399 402 405 408 411 414 417 420 423 426 429 432
          435 438 441 444 447 450 453 456 459 462 465 468
          471 474 477 480 483 486 489 492 495 498 501 504
          507 510 513 516 519 522 525 528 531 534 537 540
          543 546 549 552 555 558 561 564 567 570 573 576
          579 582 585 588 591 594 597 600 603 606 609 612
          615 618 621 624 627 630 633 636 639 642 645 648
          651 654 657 660 663 666 669 672 675 678 681 684
          687 690 693 696 699 702 705 708 711 714 717 720
          723 726 729 732 735 738 741 744 747 750 753 756
          759 762 765 768 771 774 777 780 783 786 789 792
          795 798 801 804 807 810 813 816 819 822 825 828
          831 834 837 840 843 846 849 852 855 858 861 864
          867 870 873 876 879 882 885 888 891 894 897 900
          903 906 909 912 915 918 921 924 927 930 933 936
          939 942 945 948 951 954 957 960 963 966 969 972
          975 978 981 984 987 990 993 996 999 1002 1005 1008
          1011 1014 1017 1020 1023 1026 1029 1032 1035 1038 1041 1044
          1047 1050 1053 1056 1059 1062 1065 1068 1071 1074 1077 1080
          1083 1086 1089 1092 1095 1098 1101 1104 1107 1110 1113 1116
          1119 1122 1125 1128 1131 1134 1137 1140 1143 1146 1149 1152
          1155 1158 1161 1164 1167 1170 1173 1176 1179 1182 1185 1188
          1191 1194 1197 1200 1203 1206 1209 1212 1215 1218 1221 1224
          1227 1230 1233 1236 1239 1242 1245 1248 1251 1254 1257 1260
          1263 1266 1269 1272 1275 1278 1281 1284 1287 1290 1293 1296
          1299 1302 1305 1308 1311 1314 1317 1320 1323 1326 1329 1332
          1335 1338 1341 1344 1347 1350 1353 1356 1359 1362 1365 1368
          1371 1374 1377 1380 1383 1386 1389 1392 1395 1398 1401 1404
          1407 1410 1413 1416 1419 1422 1425 1428 1431 1434 1437 1440
          1443 1446 1449 1452 1455 1458 1461 1464 1467 1470 1473 1476
          1479 1482 1485 1488 1491 1494 1497 1500 1503 1506 1509 1512
          1515 1518 1521 1524 1527 1530 1533 1536 1539 1542 1545 1548
          1551 1554 1557 1560 1563 1566 1569 1572 1575 1578 1581 1584
          1587 1590 1593 1596 1599 1602 1605 1608 1611 1614 1617 1620
          1623 1626 1629 1632 1635 1638 1641 1644 1647 1650 1653 1656
          1659 1662 1665 1668 1671 1674 1677 1680 1683 1686 1689 1692
          1695 1698 1701 1704 1707 1710 1713 1716 1719 1722 1725 1728
          1731 1734 1737 1740 1743 1746 1749 1752 1755 1758 1761 1764
          1767 1770 1773 1776 1779 1782 1785 1788 1791 1794 1797 1800
          1803 1806 1809 1812 1815 1818 1821 1824 1827 1830 1833 1836
          1839 1842 1845 1848 1851 1854 1857 1860 1863 1866 1869 1872
          1875 1878 1881 1884 1887 1890 1893 1896 1899 1902 1905 1908
          1911 1914 1917 1920 1923 1926 1929 1932
        </DataArray>
        <DataArray type="UInt8" Name="types" NumberOfComponents="1" format="ascii">
          5 5 5 5 5 5 5 5 5 5 5 5
          5 5 5 5 5 5 5 5 5 5 5 5
          5 5 5 5 5 5 5 5 5 5 5 5
          5 5 5 5 5 5 5 5 5 5 5 5
          5 5 5 5 5 5 5 5 5 5 5 5
          5 5 5 5 5 5 5 5 5 5 5 5
          5 5 5 5 5 5 5 5 5 5 5 5
          5 5 5 5 5 5 5 5 5 5 5 5
          5 5 5 5 5 5 5 5 5 5 5 5
          5 5 5 5 5 5 5 5 5 5 5 5
          5 5 5 5 5 5 5 5 5 5 5 5
          5 5 5 5 5 5 5 5 5 5 5 5
          5 5 5 5 5 5 5 5 5 5 5 5
          5 5 5 5 5 5 5 5 5 5 5 5
          5 5 5 5 5 5 5 5 5 5 5 5
          5 5 5 5 5 5 5 5 5 5 5 5
          5 5 5 5 5 5 5 5 5 5 5 5
          5 5 5 5 5 5 5 5 5 5 5 5
          5 5 5 5 5 5 5 5 5 5 5 5
          5 5 5 5 5 5 5 5 5 5 5 5
          5 5 5 5 5 5 5 5 5 5 5 5
          5 5 5 5 5 5 5 5 5 5 5 5
          5 5 5 5 5 5 5 5 5 5 5 5
          5 5 5 5 5 5 5 5 5 5 5 5
          5 5 5 5 5 5 5 5 5 5 5 5
          5 5 5 5 5 5 5 5 5 5 5 5
          5 5 5 5 5 5 5 5 5 5 5 5
          5 5 5 5 5 5 5 5 5 5 5 5
          5 5 5 5 5 5 5 5 5 5 5 5
          5 5 5 5 5 5 5 5 5 5 5 5
          5 5 5 5 5 5 5 5 5 5 5 5
          5 5 5 5 5 5 5 5 5 5 5 5
          5 5 5 5 5 5 5 5 5 5 5 5
          5 5 5 5 5 5 5 5 5 5 5 5
          5 5 5 5 5 5 5 5 5 5 5 5
          5 5 5 5 5 5 5 5 5 5 5 5
          5 5 5 5 5 5 5 5 5 5 5 5
          5 5 5 5 5 5 5 5 5 5 5 5
          5 5 5 5 5 5 5 5 5 5 5 5
          5 5 5 5 5 5 5 5 5 5 5 5
          5 5 5 5 5 5 5 5 5 5 5 5
          5 5 5 5 5 5 5 5 5 5 5 5
          5 5 5 5 5 5 5 5 5 5 5 5
          5 5 5 5 5 5 5 5 5 5 5 5
          5 5 5 5 5 5 5 5 5 5 5 5
          5 5 5 5 5 5 5 5 5 5 5 5
          5 5 5 5 5 5 5 5 5 5 5 5
          5 5 5 5 5 5 5 5 5 5 5 5
          5 5 5 5 5 5 5 5 5 5 5 5
          5 5 5 5 5 5 5 5 5 5 5 5
          5 5 5 5 5 5 5 5 5 5 5 5
          5 5 5 5 5 5 5 5 5 5 5 5
          5 5 5 5 5 5 5 5 5 5 5 5
          5 5 5 5 5 5 5 5
        </DataArray>
      </Cells>
    </Piece>
  </UnstructuredGrid>
</VTKFile>
