<?xml version="1.0"?>
<VTKFile type="UnstructuredGrid" version="0.1" byte_order="LittleEndian">
  <UnstructuredGrid>
    <Piece NumberOfCells="604" NumberOfPoints="304">
      <PointData Scalars="Dirichlet_data">
        <DataArray type="Float32" Name="Dirichlet_data" NumberOfComponents="1" format="ascii">
          -0.998821 -1.06064 -1.01351 -0.9879 -0.448462 -0.758865 -0.813497 -0.635865 -0.787464 -0.442221 -1.16695 -1.29457
          -1.19986 -0.998384 -1.23866 -1.21374 -1.18586 -0.599577 -0.225603 -1.05116 -1.09389 -0.224832 -0.656484 -0.440566
          -1.06699 -0.916083 -1.1154 -0.97352 -1.01951 -0.798522 -0.921672 -1.06278 -1.19981 -1.0226 -1.00646 -0.814008
          -0.803718 -1.12293 -0.636586 -0.948098 -0.887505 -1.2597 -1.18726 -0.412406 -0.00200538 -1.04758 -0.453965 -0.33225
          0.00109763 0.98687 0.859276 0.915375 0.804024 0.679134 0.916886 0.661829 0.350848 0.0581426 -0.217271 0.319381
          0.301991 0.858726 0.989765 -0.329947 0.631289 0.803459 0.199487 0.635581 0.440629 0.316061 -0.145586 -0.166732
          0.643532 0.077733 0.440956 -0.316767 0.521587 0.114445 0.953473 1.01757 -0.599602 -0.0970364 -0.633091 -0.766372
          -0.455512 -0.447679 0.224143 -0.136968 -0.35371 0.0901467 0.22448 0.444568 0.468562 0.811618 -0.63835 -0.135387
          -0.443194 0.372726 0.0282491 0.426987 0.310511 0.74626 0.451256 0.0338483 -0.225143 0.109977 0.749857 1.01556
          -0.673274 -0.80441 -0.912238 -0.402347 -0.378121 -0.64738 1.02151 0.60616 0.80174 0.212138 -0.263899 -0.169857
          0.153144 -0.000535959 -0.613173 0.103533 -0.101098 -0.388992 -0.0362248 -0.242655 0.46277 0.0842674 -0.870752 -0.819157
          -0.995497 0.148976 -0.228368 -0.00153571 0.456072 -0.0391786 0.631972 1.02082 0.810156 -0.0936866 -0.49546 -0.275816
          -0.397655 0.0605612 0.350414 0.38674 0.445613 0.228051 -0.152411 -0.852933 -0.986759 -0.91845 0.798533 0.632463
          -0.254275 0.199528 -0.636493 -0.44539 -0.32046 0.258637 1.02107 0.735816 -0.763894 -0.799266 0.66385 -0.623298
          0.332439 0.0601864 0.118442 0.409008 -0.966426 -0.596762 -1.02888 -1.04411 -0.811495 -0.939827 -1.29319 -0.868297
          -1.24086 -1.17813 -1.0651 -1.02392 -1.15714 -1.13011 -1.10608 -0.720085 -0.448024 -1.07727 -0.661482 -1.08294
          -0.861207 -0.966581 -0.710523 -1.07584 -1.01512 -0.814045 -1.19503 -1.20889 -1.13994 -1.11486 -1.26363 -0.40485
          -1.21428 -0.90266 -1.01855 -0.446763 1.06239 0.991708 0.76009 0.785512 1.28941 1.127 1.15905 1.24322
          1.21746 1.23358 0.600227 1.09263 1.05283 0.678737 0.224939 0.441266 1.06453 1.11421 0.97259 0.799251
          0.923197 1.06867 1.20733 1.08387 0.983936 0.636635 0.981718 0.895004 1.21223 1.2491 0.413095 1.05422
          0.33642 1.05042 0.989037 0.916848 1.25 1.10897 1.23273 1.0407 1.03595 1.17198 1.23759 1.15976
          1.05957 0.73323 1.03866 0.796495 1.01196 1.2296 1.16233 0.936629 0.803741 0.638076 0.439117 1.09774
          1.28568 0.913314 1.02655 1.1885 1.13006 0.966984 1.04267 0.231021 0.351221 0.632979 0.038333 -0.63378
          -0.623136 0.476841 0.0981964 0.282496 0.37774 -0.0541981 -0.369466 -0.386844 -0.466318 0.814555 0.253636 -0.20235
          -0.754256 -0.667696 -0.35489 -0.423281 -0.118604 -0.314549 -0.0130652 0.368351 0.601051 0.11973 -0.0479626 0.820551
          0.94568 0.68454 -0.0148609 -0.160597
        </DataArray>
      </PointData>
      <Points>
        <DataArray type="Float32" Name="Coordinates" NumberOfComponents="3" format="ascii">
          -0.222521 0.974928 0 -0.207057 0.96331 0.170766 0 1 0 0 0.974928 0.222521
          -0.222521 0 0.974928 -0.314546 0.144925 0.938114 -0.433884 0 0.900969 0 0.62349 0.781832
          -0.182002 0.453953 0.87224 0 0.433884 0.900969 -0.792624 0.385194 0.472623 -0.626078 0.481329 0.613473
          -0.700432 0.579362 0.416815 -0.848335 0.409526 0.335584 -0.712668 0.239004 0.659531 -0.525922 0.375855 0.762981
          -0.409624 0.571416 0.71112 -0.161354 0.282983 0.945455 0 0.222521 0.974928 -0.439921 0.884128 0.157441
          -0.31031 0.90549 0.289475 -0.974928 0.222521 0 -0.942587 0.275056 0.189402 -0.900969 0.433884 0
          -0.173995 0.886489 0.428793 0 0.900969 0.433884 -0.548853 0.179336 0.816455 -0.359644 0.311918 0.879411
          -0.62349 0 0.781832 -0.62349 0.781832 0 -0.433884 0.900969 0 -0.653059 0.721409 0.230397
          -0.435335 0.803617 0.405812 -0.781832 0 0.62349 -0.880783 0.194968 0.43152 -0.900969 0 0.433884
          0 0.781832 0.62349 -0.282803 0.734846 0.61646 -0.781832 0.62349 0 -0.207425 0.613861 0.761675
          -0.828179 0.522769 0.20207 -0.524161 0.653708 0.545821 -0.589467 0.696967 0.40837 -0.140963 0.130565 0.981368
          0 0 1 -0.344745 0.471462 0.811711 -0.974928 0 0.222521 -0.986693 0.124876 0.104133
          -1 0 0 -0.222521 -0.974928 0 -0.316546 -0.937695 0.143271 -0.433884 -0.900969 0
          0 -0.781832 0.62349 -0.195361 -0.859379 0.472548 0 -0.900969 0.433884 -0.371703 -0.877715 0.302411
          -0.370231 -0.752443 0.544756 -0.674045 -0.614695 0.40965 -0.768131 -0.470129 0.434687 -0.712668 -0.659531 0.239004
          -0.554248 -0.736016 0.388703 -0.16628 -0.944167 0.284429 0 -0.974928 0.222521 -0.943639 -0.195148 0.267325
          -0.548841 -0.816479 0.179262 -0.62349 -0.781832 0 -0.177943 -0.503443 0.845507 0 -0.62349 0.781832
          0 -0.433884 0.900969 -0.238247 -0.654504 0.717539 -0.401555 -0.491472 0.772793 -0.307047 -0.375979 0.874278
          -0.781832 -0.62349 0 -0.879702 -0.43266 0.197305 -0.900969 -0.433884 0 -0.865688 -0.335003 0.371965
          -0.213537 -0.773026 0.597355 -0.38821 -0.635273 0.667624 -0.142406 -0.981166 0.130516 0 -1 0
          -0.479975 -0.24662 0.841904 -0.569418 -0.583215 0.57933 -0.826902 -0.241858 0.507678 -0.687215 -0.221179 0.691965
          -0.700425 -0.393073 0.595733 -0.583447 -0.396976 0.708519 -0.974928 -0.222521 0 -0.986791 -0.105541 0.122902
          -0.267957 -0.172764 0.947814 -0.14883 -0.365674 0.918766 0 -0.222521 0.974928 0.974928 0 0.222521
          0.937695 0.143271 0.316546 0.900969 0 0.433884 0.781832 0.62349 0 0.859379 0.472548 0.195361
          0.900969 0.433884 0 0.877715 0.302411 0.371703 0.752443 0.544756 0.370231 0.614695 0.40965 0.674045
          0.470129 0.434687 0.768131 0.659531 0.239004 0.712668 0.736016 0.388703 0.554248 0.944167 0.284429 0.16628
          0.974928 0.222521 0 0.195148 0.267325 0.943639 0.816479 0.179262 0.548841 0.781832 0 0.62349
          0.503443 0.845507 0.177943 0.62349 0.781832 0 0.433884 0.900969 0 0.654504 0.717539 0.238247
          0.491472 0.772793 0.401555 0.375979 0.874278 0.307047 0.62349 0 0.781832 0.43266 0.197305 0.879702
          0.433884 0 0.900969 0.335003 0.371965 0.865688 0.773026 0.597355 0.213537 0.635273 0.667624 0.38821
          0.981166 0.130516 0.142406 1 0 0 0.24662 0.841904 0.479975 0.583215 0.57933 0.569418
          0.241858 0.507678 0.826902 0.221179 0.691965 0.687215 0.393073 0.595733 0.700425 0.396976 0.708519 0.583447
          0.222521 0 0.974928 0.105541 0.122902 0.986791 0.172764 0.947814 0.267957 0.365674 0.918766 0.14883
          0.222521 0.974928 0 -0.177161 0.201293 -0.963377 0 0.222521 -0.974928 0 0 -1
          -0.222521 0 -0.974928 -0.938116 0.314539 -0.144925 -0.872248 0.181968 -0.453951 -0.781832 0 -0.62349
          -0.900969 0 -0.433884 -0.578056 0.659767 -0.480166 -0.419903 0.819412 -0.390186 -0.397677 0.726415 -0.560513
          -0.659531 0.712668 -0.239004 -0.763054 0.525817 -0.375853 -0.676583 0.454623 -0.57927 -0.945457 0.161341 -0.282983
          -0.974928 0 -0.222521 -0.292811 0.307109 -0.905509 -0.15998 0.43865 -0.884304 -0.204438 0.942062 -0.265942
          0 0.974928 -0.222521 0 0.900969 -0.433884 -0.433884 0 -0.900969 -0.430216 0.171338 -0.886317
          -0.81646 0.548846 -0.179336 -0.879423 0.359615 -0.311917 0 0.62349 -0.781832 0 0.433884 -0.900969
          -0.231392 0.652628 -0.72148 -0.414599 0.430238 -0.801875 -0.62349 0 -0.781832 -0.648115 0.246754 -0.720458
          -0.438954 0.884585 -0.157573 0 0.781832 -0.62349 -0.782538 0.250042 -0.570187 -0.210451 0.830141 -0.516311
          -0.549173 0.448889 -0.704917 -0.483418 0.584184 -0.651948 -0.981368 0.140959 -0.130565 -0.813507 0.353928 -0.461455
          -0.107954 0.986577 -0.122519 0.937725 0.316469 -0.143242 0.781832 0 -0.62349 0.858762 0.193172 -0.474566
          0.900969 0 -0.433884 0.877715 0.371703 -0.302411 0.715729 0.407961 -0.566833 0.17969 0.552506 -0.813909
          0.612503 0.636575 -0.468628 0.507906 0.772633 -0.380879 0.659531 0.712668 -0.239004 0.161984 0.831017 -0.532139
          0.340187 0.837352 -0.427918 0.309817 0.695862 -0.647912 0.763597 0.539598 -0.354619 0.944125 0.16589 -0.284797
          0.974928 0 -0.222521 0.18303 0.94273 -0.278856 0.14686 0.383231 -0.911903 0.425139 0.884867 -0.19044
          0.816646 0.548624 -0.179167 0.322153 0.389442 -0.862874 0.253379 0.196619 -0.947175 0.490396 0.206977 -0.846565
          0.62349 0 -0.781832 0.433884 0 -0.900969 0.665361 0.197836 -0.71983 0.502083 0.382138 -0.775811
          0.773315 0.199479 -0.601824 0.371915 0.529505 -0.762432 0.506527 0.579468 -0.638472 0.98117 0.14231 -0.130587
          0.460962 0.721811 -0.516239 0.130104 0.71329 -0.688687 0.102509 0.986737 -0.125863 0.222521 0 -0.974928
          -0.177161 -0.963377 -0.201293 0 -0.974928 -0.222521 -0.938116 -0.144925 -0.314539 -0.872248 -0.453951 -0.181968
          -0.578056 -0.480166 -0.659767 -0.419903 -0.390186 -0.819412 -0.397677 -0.560513 -0.726415 -0.659531 -0.239004 -0.712668
          -0.763054 -0.375853 -0.525817 -0.676583 -0.57927 -0.454623 -0.945457 -0.282983 -0.161341 -0.292811 -0.905509 -0.307109
          -0.15998 -0.884304 -0.43865 -0.204438 -0.265942 -0.942062 0 -0.222521 -0.974928 0 -0.433884 -0.900969
          -0.430216 -0.886317 -0.171338 -0.81646 -0.179336 -0.548846 -0.879423 -0.311917 -0.359615 0 -0.781832 -0.62349
          0 -0.900969 -0.433884 -0.231392 -0.72148 -0.652628 -0.414599 -0.801875 -0.430238 -0.648115 -0.720458 -0.246754
          -0.438954 -0.157573 -0.884585 0 -0.62349 -0.781832 -0.782538 -0.570187 -0.250042 -0.210451 -0.516311 -0.830141
          -0.549173 -0.704917 -0.448889 -0.483418 -0.651948 -0.584184 -0.981368 -0.130565 -0.140959 -0.813507 -0.461455 -0.353928
          -0.107954 -0.122519 -0.986577 0.316546 -0.937695 0.143271 0.222521 -0.974928 0 0.433884 -0.900969 0
          0.652053 -0.58551 0.481669 0.792688 -0.4728 0.384846 0.741757 -0.384075 0.549802 0.853452 -0.326026 0.406603
          0.712668 -0.659531 0.239004 0.540573 -0.762688 0.355089 0.482432 -0.69231 0.536625 0.364427 -0.851785 0.37637
          0.173153 -0.938812 0.297742 0.943734 -0.185753 0.27361 0.548841 -0.816479 0.179262 0.62349 -0.781832 0
          0.447322 -0.178664 0.876346 0.657823 -0.223325 0.719302 0.470152 -0.376051 0.798463 0.338774 -0.332921 0.879998
          0.881917 -0.429513 0.194272 0.781832 -0.62349 0 0.900969 -0.433884 0 0.834612 -0.191395 0.516518
          0.58809 -0.481141 0.650118 0.241031 -0.4719 0.848065 0.142406 -0.981166 0.130516 0.402364 -0.589777 0.70019
          0.293513 -0.760005 0.579864 0.193594 -0.669141 0.717476 0.164101 -0.868079 0.468518 0.974928 -0.222521 0
          0.986839 -0.103159 0.124525 0.174755 -0.278447 0.944419 0.145236 -0.314506 -0.938079 0.455379 -0.181751 -0.871548
          0.834235 -0.235174 -0.498743 0.371224 -0.810017 -0.453945 0.477301 -0.661818 -0.578083 0.573124 -0.725503 -0.381018
          0.241632 -0.702113 -0.669814 0.375982 -0.529843 -0.7602 0.59083 -0.449133 -0.670223 0.283495 -0.16129 -0.945313
          0.928165 -0.166155 -0.33302 0.169802 -0.920609 -0.351633 0.179658 -0.5488 -0.81642 0.313183 -0.359393 -0.879064
          0.607626 -0.210541 -0.765809 0.716556 -0.276575 -0.640354 0.753107 -0.422385 -0.504402 0.469841 -0.351313 -0.809833
          0.130731 -0.140947 -0.981348 0.874078 -0.326672 -0.359544 0.659739 -0.599043 -0.453753 0.708562 -0.67183 -0.215833
          0.517832 -0.825536 -0.224368 0.859444 -0.469426 -0.202473 0.782386 -0.512634 -0.353665 0.313487 -0.928421 -0.199399
          0.141554 -0.977381 -0.157129 0.161311 -0.843342 -0.512594 0.931248 -0.318925 -0.17625 0.974156 -0.159008 -0.160424
        </DataArray>
      </Points>
      <Cells>
        <DataArray type="Int32" Name="connectivity" NumberOfComponents="1" format="ascii">
          0 1 2 1 3 2 4 5 6 7 8 9
          10 11 12 13 10 12 11 10 14 11 15 16
          9 17 18 19 20 1 21 22 23 24 25 3
          1 24 3 15 26 27 20 24 1 26 28 6
          17 9 8 27 17 8 17 27 5 29 19 30
          19 29 31 19 32 20 31 32 19 33 34 35
          34 33 14 34 10 13 34 14 10 28 14 33
          28 26 14 15 11 14 15 14 26 24 36 25
          32 24 20 36 24 37 32 37 24 38 31 29
          13 22 34 5 26 6 5 27 26 7 39 8
          16 39 37 40 31 38 31 40 12 41 16 37
          32 41 37 12 42 31 42 32 31 18 43 44
          43 4 44 43 18 17 45 27 8 45 16 15
          27 45 15 45 39 16 8 39 45 43 5 4
          17 5 43 36 39 7 36 37 39 40 38 23
          40 13 12 13 40 22 22 40 23 41 11 16
          11 41 12 32 42 41 42 12 41 35 34 46
          22 46 34 47 21 48 47 46 22 46 47 48
          21 47 22 30 1 0 30 19 1 49 50 51
          52 53 54 55 53 56 57 58 59 60 55 56
          54 61 62 46 63 35 60 64 55 64 65 51
          61 54 53 55 61 53 61 55 50 66 67 68
          67 66 69 70 66 71 70 69 66 72 73 74
          73 72 59 73 58 75 73 59 58 65 59 72
          65 64 59 60 57 59 60 59 64 69 52 67
          75 63 73 50 64 51 50 55 64 76 53 52
          69 76 52 53 76 56 70 77 69 78 49 79
          78 62 61 62 78 79 80 70 71 78 50 49
          61 50 78 28 80 6 77 81 56 60 81 57
          60 56 81 82 33 35 75 82 63 63 82 35
          77 70 81 76 77 56 76 69 77 83 80 28
          82 84 83 80 85 70 85 81 70 85 80 83
          85 84 81 83 84 85 82 75 58 57 81 58
          84 82 58 81 84 58 28 33 83 33 82 83
          74 73 86 63 86 73 86 87 48 46 87 63
          87 46 48 87 86 63 6 88 4 80 71 88
          6 80 88 89 68 90 89 66 68 71 66 89
          89 88 71 88 89 90 4 90 44 88 90 4
          91 92 93 94 95 96 97 95 98 99 100 101
          102 97 98 96 103 104 18 105 9 102 106 97
          106 107 93 103 96 95 97 103 95 103 97 92
          108 109 110 109 108 111 112 108 113 112 111 108
          114 115 116 115 114 101 115 100 117 115 101 100
          107 101 114 107 106 101 102 99 101 102 101 106
          111 94 109 117 105 115 92 106 93 92 97 106
          118 95 94 111 118 94 95 118 98 112 119 111
          104 120 121 120 91 121 120 104 103 122 112 113
          120 92 91 103 92 120 36 122 25 119 123 98
          102 123 99 102 98 123 124 7 9 117 124 105
          105 124 9 119 112 123 118 119 98 118 111 119
          125 122 36 124 126 125 122 127 112 127 123 112
          127 122 125 127 126 123 125 126 127 124 117 100
          99 123 100 126 124 100 123 126 100 36 7 125
          7 124 125 116 115 128 105 128 115 129 18 44
          129 128 105 128 129 44 18 129 105 25 130 3
          122 113 130 25 122 130 131 110 132 131 108 110
          113 108 131 131 130 113 130 131 132 3 132 2
          130 132 3 133 134 135 136 133 135 137 21 23
          138 139 140 141 142 143 142 141 144 145 141 146
          147 140 148 149 150 133 151 152 153 154 155 136
          155 133 136 156 145 157 155 149 133 38 156 23
          140 147 138 147 157 138 157 147 137 150 158 159
          158 150 160 161 150 149 161 160 150 162 155 154
          155 161 149 155 162 163 163 161 155 164 29 30
          29 164 144 144 164 142 144 38 29 156 38 144
          141 145 144 144 145 156 160 165 158 139 163 162
          156 137 23 157 137 156 166 139 138 166 146 163
          139 166 163 160 167 165 167 160 143 146 168 163
          168 161 163 169 143 160 161 169 160 21 170 48
          148 170 147 170 148 48 157 171 138 146 171 145
          171 157 145 166 171 146 166 138 171 137 170 21
          137 147 170 165 167 153 167 151 153 141 169 146
          169 141 143 161 168 169 168 146 169 142 167 143
          151 142 164 167 142 151 164 30 0 0 151 164
          172 0 2 172 152 151 152 172 2 0 172 151
          133 159 134 150 159 133 104 173 96 174 175 176
          177 175 178 158 179 159 180 181 182 183 165 153
          183 184 185 180 186 178 186 177 178 176 187 188
          152 189 153 159 190 134 189 183 153 184 183 189
          191 132 110 186 192 177 190 193 194 192 94 96
          187 176 175 177 187 175 187 177 173 190 159 179
          193 190 179 195 196 197 196 195 198 199 195 193
          199 198 195 109 191 110 191 109 182 191 181 184
          191 182 181 94 182 109 94 192 182 186 180 182
          186 182 192 198 174 196 198 199 178 184 189 191
          132 191 189 173 192 96 173 177 192 200 175 174
          200 198 178 198 200 174 175 200 178 201 199 193
          179 201 193 199 201 202 203 104 121 203 188 187
          188 203 121 203 173 104 187 173 203 185 201 179
          185 202 201 202 180 178 199 202 178 180 204 181
          185 204 202 204 180 202 184 204 185 184 181 204
          158 205 179 205 185 179 205 158 165 183 205 165
          183 185 205 132 206 2 152 206 189 206 152 2
          206 132 189 194 197 207 197 194 195 193 195 194
          190 194 134 194 135 134 207 135 194 49 208 79
          208 209 79 210 148 140 211 72 74 212 213 214
          213 212 215 216 212 217 218 74 86 219 220 208
          221 222 223 51 224 49 224 208 49 225 216 226
          224 219 208 139 225 140 74 218 211 218 226 211
          226 218 210 220 227 228 227 220 229 230 220 219
          230 229 220 65 224 51 224 230 219 224 65 231
          231 230 224 232 162 154 162 232 215 215 232 213
          215 139 162 225 139 215 212 216 215 215 216 225
          229 233 227 72 231 65 225 210 140 226 210 225
          234 72 211 234 217 231 72 234 231 229 235 233
          235 229 214 217 236 231 236 230 231 237 214 229
          230 237 229 238 86 48 148 238 48 86 238 218
          226 239 211 217 239 216 239 226 216 234 239 217
          234 211 239 210 238 148 210 218 238 233 235 223
          235 221 223 212 237 217 237 212 214 230 236 237
          236 217 237 213 235 214 221 213 232 235 213 221
          232 154 136 136 221 232 222 240 135 136 240 221
          240 136 135 240 222 221 208 228 209 220 228 208
          241 242 243 244 245 246 245 247 246 245 244 248
          249 244 250 251 249 250 252 54 62 253 91 93
          254 249 251 255 254 243 251 252 241 256 114 116
          114 256 257 258 256 259 258 257 256 260 261 262
          261 260 248 245 260 247 248 260 245 248 255 261
          254 255 248 244 249 248 248 249 254 257 107 114
          256 116 128 253 247 260 254 241 243 251 241 254
          257 263 107 263 257 246 264 246 257 258 264 257
          265 258 259 242 266 79 62 266 252 266 62 79
          265 267 258 241 266 242 241 252 266 67 265 68
          244 264 250 264 244 246 258 267 264 267 250 264
          107 263 93 247 263 246 263 247 253 263 253 93
          250 267 268 268 251 250 265 269 267 269 265 67
          269 268 267 270 252 251 268 270 251 252 270 54
          270 52 54 268 52 270 67 52 269 52 268 269
          260 262 271 271 253 260 272 271 121 272 91 253
          91 272 121 271 272 253 68 273 90 265 259 273
          68 265 273 273 259 256 273 256 128 90 128 44
          90 273 128 222 274 223 196 275 197 276 174 176
          277 278 279 278 277 280 278 281 282 197 283 207
          284 176 188 285 209 228 281 286 287 286 233 223
          283 197 275 287 283 275 283 287 274 176 284 276
          233 280 227 233 286 280 281 278 280 281 280 286
          274 286 223 274 287 286 196 288 275 282 289 290
          289 276 290 289 282 288 291 287 275 291 282 281
          287 291 281 292 222 135 292 207 283 207 292 135
          291 288 282 275 288 291 292 274 222 283 274 292
          290 276 293 284 293 276 196 174 288 289 174 276
          288 174 289 294 278 282 278 294 279 290 294 282
          294 295 279 295 261 255 255 296 295 296 279 295
          243 296 255 297 262 261 261 295 297 298 295 294
          298 293 297 295 298 297 298 290 293 294 290 298
          296 277 279 296 299 277 299 285 277 209 300 79
          300 242 79 301 280 277 285 301 277 285 300 209
          227 301 228 301 227 280 301 285 228 242 299 243
          242 300 299 299 296 243 285 299 300 262 302 271
          293 284 302 262 297 302 297 293 302 271 303 121
          303 188 121 303 271 302 303 284 188 302 284 303
        </DataArray>
        <DataArray type="Int32" Name="offsets" NumberOfComponents="1" format="ascii">
          3 6 9 12 15 18 21 24 27 30 33 36
          39 42 45 48 51 54 57 60 63 66 69 72
          75 78 81 84 87 90 93 96 99 102 105 108
          111 114 117 120 123 126 129 132 135 138 141 144
          147 150 153 156 159 162 165 168 171 174 177 180
          183 186 189 192 195 198 201 204 207 210 213 216
          219 222 225 228 231 234 237 240 243 246 249 252
          255 258 261 264 267 270 273 276 279 282 285 288
          291 294 297 300 303 306 309 312 315 318 321 324
          327 330 333 336 339 342 345 348 351 354 357 360
          363 366 369 372 375 378 381 384 387 390 393 396
          399 402 405 408 411 414 417 420 423 426 429 432
          435 438 441 444 447 450 453 456 459 462 465 468
          471 474 477 480 483 486 489 492 495 498 501 504
          507 510 513 516 519 522 525 528 531 534 537 540
          543 546 549 552 555 558 561 564 567 570 573 576
          579 582 585 588 591 594 597 600 603 606 609 612
          615 618 621 624 627 630 633 636 639 642 645 648
          651 654 657 660 663 666 669 672 675 678 681 684
          687 690 693 696 699 702 705 708 711 714 717 720
          723 726 729 732 735 738 741 744 747 750 753 756
          759 762 765 768 771 774 777 780 783 786 789 792
          795 798 801 804 807 810 813 816 819 822 825 828
          831 834 837 840 843 846 849 852 855 858 861 864
          867 870 873 876 879 882 885 888 891 894 897 900
          903 906 909 912 915 918 921 924 927 930 933 936
          939 942 945 948 951 954 957 960 963 966 969 972
          975 978 981 984 987 990 993 996 999 1002 1005 1008
          1011 1014 1017 1020 1023 1026 1029 1032 1035 1038 1041 1044
          1047 1050 1053 1056 1059 1062 1065 1068 1071 1074 1077 1080
          1083 1086 1089 1092 1095 1098 1101 1104 1107 1110 1113 1116
          1119 1122 1125 1128 1131 1134 1137 1140 1143 1146 1149 1152
          1155 1158 1161 1164 1167 1170 1173 1176 1179 1182 1185 1188
          1191 1194 1197 1200 1203 1206 1209 1212 1215 1218 1221 1224
          1227 1230 1233 1236 1239 1242 1245 1248 1251 1254 1257 1260
          1263 1266 1269 1272 1275 1278 1281 1284 1287 1290 1293 1296
          1299 1302 1305 1308 1311 1314 1317 1320 1323 1326 1329 1332
          1335 1338 1341 1344 1347 1350 1353 1356 1359 1362 1365 1368
          1371 1374 1377 1380 1383 1386 1389 1392 1395 1398 1401 1404
          1407 1410 1413 1416 1419 1422 1425 1428 1431 1434 1437 1440
          1443 1446 1449 1452 1455 1458 1461 1464 1467 1470 1473 1476
          1479 1482 1485 1488 1491 1494 1497 1500 1503 1506 1509 1512
          1515 1518 1521 1524 1527 1530 1533 1536 1539 1542 1545 1548
          1551 1554 1557 1560 1563 1566 1569 1572 1575 1578 1581 1584
          1587 1590 1593 1596 1599 1602 1605 1608 1611 1614 1617 1620
          1623 1626 1629 1632 1635 1638 1641 1644 1647 1650 1653 1656
          1659 1662 1665 1668 1671 1674 1677 1680 1683 1686 1689 1692
          1695 1698 1701 1704 1707 1710 1713 1716 1719 1722 1725 1728
          1731 1734 1737 1740 1743 1746 1749 1752 1755 1758 1761 1764
          1767 1770 1773 1776 1779 1782 1785 1788 1791 1794 1797 1800
          1803 1806 1809 1812
        </DataArray>
        <DataArray type="UInt8" Name="types" NumberOfComponents="1" format="ascii">
          5 5 5 5 5 5 5 5 5 5 5 5
          5 5 5 5 5 5 5 5 5 5 5 5
          5 5 5 5 5 5 5 5 5 5 5 5
          5 5 5 5 5 5 5 5 5 5 5 5
          5 5 5 5 5 5 5 5 5 5 5 5
          5 5 5 5 5 5 5 5 5 5 5 5
          5 5 5 5 5 5 5 5 5 5 5 5
          5 5 5 5 5 5 5 5 5 5 5 5
          5 5 5 5 5 5 5 5 5 5 5 5
          5 5 5 5 5 5 5 5 5 5 5 5
          5 5 5 5 5 5 5 5 5 5 5 5
          5 5 5 5 5 5 5 5 5 5 5 5
          5 5 5 5 5 5 5 5 5 5 5 5
          5 5 5 5 5 5 5 5 5 5 5 5
          5 5 5 5 5 5 5 5 5 5 5 5
          5 5 5 5 5 5 5 5 5 5 5 5
          5 5 5 5 5 5 5 5 5 5 5 5
          5 5 5 5 5 5 5 5 5 5 5 5
          5 5 5 5 5 5 5 5 5 5 5 5
          5 5 5 5 5 5 5 5 5 5 5 5
          5 5 5 5 5 5 5 5 5 5 5 5
          5 5 5 5 5 5 5 5 5 5 5 5
          5 5 5 5 5 5 5 5 5 5 5 5
          5 5 5 5 5 5 5 5 5 5 5 5
          5 5 5 5 5 5 5 5 5 5 5 5
          5 5 5 5 5 5 5 5 5 5 5 5
          5 5 5 5 5 5 5 5 5 5 5 5
          5 5 5 5 5 5 5 5 5 5 5 5
          5 5 5 5 5 5 5 5 5 5 5 5
          5 5 5 5 5 5 5 5 5 5 5 5
          5 5 5 5 5 5 5 5 5 5 5 5
          5 5 5 5 5 5 5 5 5 5 5 5
          5 5 5 5 5 5 5 5 5 5 5 5
          5 5 5 5 5 5 5 5 5 5 5 5
          5 5 5 5 5 5 5 5 5 5 5 5
          5 5 5 5 5 5 5 5 5 5 5 5
          5 5 5 5 5 5 5 5 5 5 5 5
          5 5 5 5 5 5 5 5 5 5 5 5
          5 5 5 5 5 5 5 5 5 5 5 5
          5 5 5 5 5 5 5 5 5 5 5 5
          5 5 5 5 5 5 5 5 5 5 5 5
          5 5 5 5 5 5 5 5 5 5 5 5
          5 5 5 5 5 5 5 5 5 5 5 5
          5 5 5 5 5 5 5 5 5 5 5 5
          5 5 5 5 5 5 5 5 5 5 5 5
          5 5 5 5 5 5 5 5 5 5 5 5
          5 5 5 5 5 5 5 5 5 5 5 5
          5 5 5 5 5 5 5 5 5 5 5 5
          5 5 5 5 5 5 5 5 5 5 5 5
          5 5 5 5 5 5 5 5 5 5 5 5
          5 5 5 5
        </DataArray>
      </Cells>
    </Piece>
  </UnstructuredGrid>
</VTKFile>
