<?xml version="1.0"?>
<VTKFile type="UnstructuredGrid" version="0.1" byte_order="LittleEndian">
  <UnstructuredGrid>
    <Piece NumberOfCells="152" NumberOfPoints="78">
      <CellData Scalars="Neumann_data">
        <DataArray type="Float32" Name="Neumann_data" NumberOfComponents="1" format="ascii">
          -0.442099 -0.461755 -0.852167 -0.855659 0.66269 0.013044 0.0582884 0.986122 0.437772 0.569906 -0.102457 -0.00220551
          0.646251 0.0522027 1.00557 1.31455 0.575969 -0.429975 -0.455822 -0.584683 -0.888218 -1.08682 -0.969476 -1.56441
          -0.92832 -1.46279 -1.54002 -1.49852 -0.851751 -0.545399 -1.42363 -1.01137 -1.43546 -1.04269 -1.04518 -1.16409
          -1.39307 -1.19031 0.857124 0.858115 0.478574 0.453919 -0.66272 -0.0122136 -0.0463572 -1.30396 -0.692368 -0.0435936
          -1.02634 -0.566278 -1.00223 -0.598478 -0.0804548 0.447278 0.470292 0.119645 -0.417724 0.592991 0.895731 1.10208
          0.977484 1.56242 0.921077 1.47 1.53979 1.51005 0.849857 0.543327 1.41915 1.00159 1.42547 1.0383
          1.04887 1.15207 1.39033 1.20046 -0.898727 -0.595504 -1.06905 -0.947373 -1.03526 -1.03741 -1.1582 -0.947107
          -0.558769 -0.865269 -1.03945 -1.35282 -1.15552 -1.44596 -1.43295 -1.54441 -1.47343 -1.48295 -1.53891 -0.455593
          0.637962 0.0192757 -0.0125451 0.963802 0.522734 -0.473144 0.658807 0.00912265 0.0170425 -0.874347 -0.874716 1.30234
          0.370875 0.538989 1.00396 -0.511732 -0.194689 -0.526614 0.559974 0.864826 1.5386 1.42019 1.56463 1.42661
          1.01382 0.915604 0.614889 1.48807 1.5266 0.919094 1.05269 1.04972 1.17854 1.20375 1.41196 1.11972
          0.978166 0.864675 0.8665 0.482051 0.434698 0.500834 0.4671 0.149366 -0.662175 -0.0117173 -0.0298449 -1.31642
          -0.682148 -0.0336089 -0.41578 -0.55962 -1.00277 -1.0378 -0.0837636 -0.608721
        </DataArray>
      </CellData>
      <Points>
        <DataArray type="Float32" Name="Coordinates" NumberOfComponents="3" format="ascii">
          0.34807 0.628906 0.695216 0 0.866025 0.5 0 0.5 0.866025 0.320078 0.880875 0.348725
          0.5 0.866025 0 0 1 0 0.308731 0.315345 0.897353 0 0 1
          0.5 0 0.866025 0.61359 0.324794 0.719733 0.633655 0.664203 0.396631 0.866025 0.5 0
          0.869152 0.37814 0.318724 1 0 0 0.866025 0 0.5 -0.896266 0.305984 0.321062
          -0.866025 0.5 0 -1 0 0 -0.866025 0 0.5 -0.671424 0.630066 0.390138
          -0.5 0.866025 0 -0.655625 0.312366 0.687447 -0.336535 0.620333 0.708471 -0.5 0 0.866025
          -0.289089 0.27925 0.915668 -0.317303 0.889835 0.327889 -0.323761 -0.886011 0.331908 -0.5 -0.866025 0
          0 -1 0 0 -0.866025 0.5 -0.3458 -0.651913 0.674857 0 -0.5 0.866025
          -0.296138 -0.286952 0.911022 -0.658425 -0.347758 0.667488 -0.899602 -0.286171 0.329883 -0.866025 -0.5 0
          -0.681982 -0.642414 0.349579 0.893081 -0.306166 0.329651 0.866025 -0.5 0 0.6645 -0.630509 0.401122
          0.5 -0.866025 0 0.649523 -0.312354 0.69322 0.326835 -0.619831 0.713434 0.286955 -0.279208 0.916351
          0.299584 -0.889684 0.344546 0.323761 0.331908 -0.886011 0.5 0 -0.866025 0 0 -1
          0 0.5 -0.866025 0.3458 0.674857 -0.651913 0 0.866025 -0.5 0.296138 0.911022 -0.286952
          0.658425 0.667488 -0.347758 0.899602 0.329883 -0.286171 0.866025 0 -0.5 0.681982 0.349579 -0.642414
          -0.660704 0.663163 -0.351687 -0.899306 0.329988 -0.286978 -0.866025 0 -0.5 -0.688957 0.34918 -0.635147
          -0.333804 0.677787 -0.655118 -0.5 0 -0.866025 -0.306819 0.321007 -0.896 -0.295333 0.907599 -0.298399
          -0.912059 -0.272491 -0.306427 -0.708483 -0.31052 -0.633743 -0.403081 -0.626993 -0.666637 -0.727459 -0.601749 -0.3297
          -0.350604 -0.311851 -0.883077 0 -0.5 -0.866025 -0.344556 -0.86818 -0.357134 0 -0.866025 -0.5
          0.305984 -0.896266 -0.321062 0.634531 -0.666907 -0.390647 0.318007 -0.643079 -0.69665 0.296693 -0.28963 -0.909993
          0.636917 -0.325001 -0.699079 0.88977 -0.314438 -0.330814
        </DataArray>
      </Points>
      <Cells>
        <DataArray type="Int32" Name="connectivity" NumberOfComponents="1" format="ascii">
          0 1 2 3 1 0 3 4 5 1 3 5
          6 7 8 7 6 2 6 0 2 8 9 6
          0 9 10 0 6 9 0 10 3 11 12 13
          12 14 13 12 11 10 9 14 12 9 8 14
          10 9 12 4 10 11 10 4 3 15 16 17
          18 15 17 16 15 19 20 16 19 19 21 22
          1 22 2 18 21 15 21 18 23 21 19 15
          24 23 7 2 24 7 23 24 21 22 24 2
          24 22 21 5 25 1 25 5 20 1 25 22
          25 19 22 19 25 20 26 27 28 29 26 28
          29 30 26 30 29 31 23 32 7 32 31 7
          31 32 30 33 23 18 17 34 18 34 17 35
          34 33 18 32 33 30 33 32 23 36 33 34
          35 36 34 27 36 35 27 26 36 30 36 26
          36 30 33 37 38 13 14 37 13 38 37 39
          40 38 39 39 41 42 29 42 31 14 41 37
          41 14 8 41 39 37 43 8 7 31 43 7
          8 43 41 42 43 31 43 42 41 28 44 29
          44 28 40 29 44 42 44 39 42 39 44 40
          45 46 47 48 45 47 48 49 45 49 48 50
          4 51 5 51 50 5 50 51 49 52 4 11
          13 53 11 53 13 54 53 52 11 51 52 49
          52 51 4 55 52 53 54 55 53 46 55 54
          46 45 55 49 55 45 55 49 52 16 20 56
          17 57 58 56 57 16 57 17 16 59 58 57
          56 59 57 60 50 48 61 62 47 62 48 47
          48 62 60 63 20 5 50 63 5 58 59 61
          56 60 59 62 59 60 59 62 61 20 63 56
          63 60 56 60 63 50 64 35 17 58 64 17
          65 58 61 58 65 64 66 67 65 67 64 65
          67 35 64 68 61 47 69 68 47 68 65 61
          66 65 68 35 67 27 27 70 28 70 71 28
          70 27 67 70 66 71 66 70 67 69 66 68
          66 69 71 72 40 28 71 72 28 40 72 73
          38 40 73 71 74 72 74 71 69 74 73 72
          46 75 47 75 69 47 69 75 74 76 46 54
          13 77 54 77 13 38 73 74 76 75 76 74
          76 75 46 77 76 54 73 77 38 77 73 76
        </DataArray>
        <DataArray type="Int32" Name="offsets" NumberOfComponents="1" format="ascii">
          3 6 9 12 15 18 21 24 27 30 33 36
          39 42 45 48 51 54 57 60 63 66 69 72
          75 78 81 84 87 90 93 96 99 102 105 108
          111 114 117 120 123 126 129 132 135 138 141 144
          147 150 153 156 159 162 165 168 171 174 177 180
          183 186 189 192 195 198 201 204 207 210 213 216
          219 222 225 228 231 234 237 240 243 246 249 252
          255 258 261 264 267 270 273 276 279 282 285 288
          291 294 297 300 303 306 309 312 315 318 321 324
          327 330 333 336 339 342 345 348 351 354 357 360
          363 366 369 372 375 378 381 384 387 390 393 396
          399 402 405 408 411 414 417 420 423 426 429 432
          435 438 441 444 447 450 453 456
        </DataArray>
        <DataArray type="UInt8" Name="types" NumberOfComponents="1" format="ascii">
          5 5 5 5 5 5 5 5 5 5 5 5
          5 5 5 5 5 5 5 5 5 5 5 5
          5 5 5 5 5 5 5 5 5 5 5 5
          5 5 5 5 5 5 5 5 5 5 5 5
          5 5 5 5 5 5 5 5 5 5 5 5
          5 5 5 5 5 5 5 5 5 5 5 5
          5 5 5 5 5 5 5 5 5 5 5 5
          5 5 5 5 5 5 5 5 5 5 5 5
          5 5 5 5 5 5 5 5 5 5 5 5
          5 5 5 5 5 5 5 5 5 5 5 5
          5 5 5 5 5 5 5 5 5 5 5 5
          5 5 5 5 5 5 5 5 5 5 5 5
          5 5 5 5 5 5 5 5
        </DataArray>
      </Cells>
    </Piece>
  </UnstructuredGrid>
</VTKFile>
